 128  128
1 1
     2.566241818728601    -0.187151951563009     0.187151951563008
    -0.187151951563009     2.566241818728600    -0.187151951563008
     0.187151951563008    -0.187151951563008     2.566241818728603
1 2
     0.001419152261298    -0.000477175543323     0.000477175543323
    -0.000477175543323    -0.014587623944422    -0.010942355904884
     0.000477175543323    -0.010942355904884    -0.014587623944422
1 3
    -0.001569788102778     0.000904157553725    -0.004846631412231
     0.000904157553725    -0.001620699791023     0.000904157553725
    -0.004846631412231     0.000904157553725    -0.001569788102778
1 4
    -0.001569788102778     0.004846631412231    -0.000904157553725
     0.004846631412231    -0.001569788102778     0.000904157553725
    -0.000904157553725     0.000904157553725    -0.001620699791023
1 5
    -0.014587623944422    -0.010942355904884     0.000477175543323
    -0.010942355904884    -0.014587623944422    -0.000477175543323
     0.000477175543323    -0.000477175543323     0.001419152261298
1 6
    -0.014587623944422    -0.000477175543323     0.010942355904884
    -0.000477175543323     0.001419152261298    -0.000477175543323
     0.010942355904884    -0.000477175543323    -0.014587623944422
1 7
    -0.001620699791023     0.000904157553725    -0.000904157553725
     0.000904157553725    -0.001569788102778     0.004846631412231
    -0.000904157553725     0.004846631412231    -0.001569788102778
1 8
    -0.023205134286742     0.003652328058807    -0.003652328058807
     0.003652328058807    -0.023205134286742     0.003652328058807
    -0.003652328058807     0.003652328058807    -0.023205134286742
1 9
    -0.039907173235064     0.068504096165245    -0.000792578313362
     0.068504096165245    -0.039907173235064     0.000792578313362
     0.000792578313362    -0.000792578313362     0.006051055231460
1 10
     0.001397585504472     0.002507698956761    -0.001853415261838
    -0.003022936732290     0.001397585504472    -0.002197069157494
    -0.002197069157494    -0.001853415261838    -0.003137797390059
1 11
     0.001397585504472     0.002507698956761    -0.001853415261838
    -0.003022936732290     0.001397585504472    -0.002197069157494
    -0.002197069157494    -0.001853415261838    -0.003137797390059
1 12
    -0.039907173235064     0.068504096165245    -0.000792578313362
     0.068504096165245    -0.039907173235064     0.000792578313362
     0.000792578313362    -0.000792578313362     0.006051055231460
1 13
    -0.018266346973545    -0.025657601574766     0.002519598238063
    -0.025657601574766    -0.018266346973545    -0.002519598238063
    -0.002519598238063     0.002519598238063    -0.002383668007923
1 14
     0.001397585504472    -0.003022936732290     0.002197069157494
     0.002507698956761     0.001397585504472     0.001853415261838
     0.001853415261838     0.002197069157494    -0.003137797390059
1 15
     0.001397585504472    -0.003022936732290     0.002197069157494
     0.002507698956761     0.001397585504472     0.001853415261838
     0.001853415261838     0.002197069157494    -0.003137797390059
1 16
    -0.018266346973545    -0.025657601574766     0.002519598238063
    -0.025657601574766    -0.018266346973545    -0.002519598238063
    -0.002519598238063     0.002519598238063    -0.002383668007923
1 17
    -0.039907173235064     0.000792578313362    -0.068504096165245
    -0.000792578313362     0.006051055231460    -0.000792578313362
    -0.068504096165245     0.000792578313362    -0.039907173235064
1 18
     0.001397585504472     0.001853415261838    -0.002507698956761
     0.002197069157494    -0.003137797390059    -0.001853415261838
     0.003022936732290    -0.002197069157494     0.001397585504472
1 19
    -0.039907173235064     0.000792578313362    -0.068504096165245
    -0.000792578313362     0.006051055231460    -0.000792578313362
    -0.068504096165245     0.000792578313362    -0.039907173235064
1 20
     0.001397585504472     0.001853415261838    -0.002507698956761
     0.002197069157494    -0.003137797390059    -0.001853415261838
     0.003022936732290    -0.002197069157494     0.001397585504472
1 21
     0.001397585504472    -0.002197069157494     0.003022936732290
    -0.001853415261838    -0.003137797390059     0.002197069157494
    -0.002507698956761     0.001853415261838     0.001397585504472
1 22
    -0.018266346973545    -0.002519598238063     0.025657601574766
     0.002519598238063    -0.002383668007923     0.002519598238063
     0.025657601574766    -0.002519598238063    -0.018266346973545
1 23
     0.001397585504472    -0.002197069157494     0.003022936732290
    -0.001853415261838    -0.003137797390059     0.002197069157494
    -0.002507698956761     0.001853415261838     0.001397585504472
1 24
    -0.018266346973545    -0.002519598238063     0.025657601574766
     0.002519598238063    -0.002383668007923     0.002519598238063
     0.025657601574766    -0.002519598238063    -0.018266346973545
1 25
     0.006051055231460    -0.000792578313362     0.000792578313362
     0.000792578313362    -0.039907173235064     0.068504096165245
    -0.000792578313362     0.068504096165245    -0.039907173235064
1 26
    -0.002383668007923     0.002519598238063    -0.002519598238063
    -0.002519598238063    -0.018266346973545    -0.025657601574766
     0.002519598238063    -0.025657601574766    -0.018266346973545
1 27
    -0.003137797390059    -0.001853415261838    -0.002197069157494
    -0.002197069157494     0.001397585504472    -0.003022936732290
    -0.001853415261838     0.002507698956761     0.001397585504472
1 28
    -0.003137797390059     0.002197069157494     0.001853415261838
     0.001853415261838     0.001397585504472     0.002507698956761
     0.002197069157494    -0.003022936732290     0.001397585504472
1 29
    -0.003137797390059    -0.001853415261838    -0.002197069157494
    -0.002197069157494     0.001397585504472    -0.003022936732290
    -0.001853415261838     0.002507698956761     0.001397585504472
1 30
    -0.003137797390059     0.002197069157494     0.001853415261838
     0.001853415261838     0.001397585504472     0.002507698956761
     0.002197069157494    -0.003022936732290     0.001397585504472
1 31
     0.006051055231460    -0.000792578313362     0.000792578313362
     0.000792578313362    -0.039907173235064     0.068504096165245
    -0.000792578313362     0.068504096165245    -0.039907173235064
1 32
    -0.002383668007923     0.002519598238063    -0.002519598238063
    -0.002519598238063    -0.018266346973545    -0.025657601574766
     0.002519598238063    -0.025657601574766    -0.018266346973545
1 33
    -0.068666681006472    -0.190733494366028    -0.000103549711406
    -0.190733494366028    -0.068666681006472     0.000103549711406
    -0.003517019309236     0.003517019309236     0.011743292441371
1 34
     0.000387953030644     0.012571549263689     0.011385167715923
     0.012571549263689     0.000387953030644    -0.011385167715923
     0.008584582920686    -0.008584582920686    -0.010732980482120
1 35
     0.006039062037539    -0.004370287271803    -0.005321732591520
    -0.004370287271803     0.006039062037539     0.005321732591520
    -0.007036289759202     0.007036289759202     0.000415618583458
1 36
    -0.012971150221271     0.030135286213234     0.005142917439955
     0.030135286213234    -0.012971150221271    -0.005142917439955
    -0.001760919618159     0.001760919618159     0.003559592109308
1 37
    -0.068666681006472    -0.190733494366028    -0.000103549711406
    -0.190733494366028    -0.068666681006472     0.000103549711406
    -0.003517019309236     0.003517019309236     0.011743292441371
1 38
     0.000387953030644     0.012571549263689     0.011385167715923
     0.012571549263689     0.000387953030644    -0.011385167715923
     0.008584582920686    -0.008584582920686    -0.010732980482120
1 39
     0.006039062037539    -0.004370287271803    -0.005321732591520
    -0.004370287271803     0.006039062037539     0.005321732591520
    -0.007036289759202     0.007036289759202     0.000415618583458
1 40
    -0.012971150221271     0.030135286213234     0.005142917439955
     0.030135286213234    -0.012971150221271    -0.005142917439955
    -0.001760919618159     0.001760919618159     0.003559592109308
1 41
     0.011743292441371     0.003517019309236    -0.003517019309236
     0.000103549711406    -0.068666681006472    -0.190733494366028
    -0.000103549711406    -0.190733494366028    -0.068666681006472
1 42
     0.011743292441371     0.003517019309236    -0.003517019309236
     0.000103549711406    -0.068666681006472    -0.190733494366028
    -0.000103549711406    -0.190733494366028    -0.068666681006472
1 43
     0.000415618583458     0.007036289759202    -0.007036289759202
     0.005321732591520     0.006039062037539    -0.004370287271803
    -0.005321732591520    -0.004370287271803     0.006039062037539
1 44
     0.000415618583458     0.007036289759202    -0.007036289759202
     0.005321732591520     0.006039062037539    -0.004370287271803
    -0.005321732591520    -0.004370287271803     0.006039062037539
1 45
    -0.010732980482120    -0.008584582920686     0.008584582920686
    -0.011385167715923     0.000387953030644     0.012571549263689
     0.011385167715923     0.012571549263689     0.000387953030644
1 46
    -0.010732980482120    -0.008584582920686     0.008584582920686
    -0.011385167715923     0.000387953030644     0.012571549263689
     0.011385167715923     0.012571549263689     0.000387953030644
1 47
     0.003559592109308     0.001760919618159    -0.001760919618159
    -0.005142917439955    -0.012971150221271     0.030135286213234
     0.005142917439955     0.030135286213234    -0.012971150221271
1 48
     0.003559592109308     0.001760919618159    -0.001760919618159
    -0.005142917439955    -0.012971150221271     0.030135286213234
     0.005142917439955     0.030135286213234    -0.012971150221271
1 49
     0.000387953030644    -0.011385167715923    -0.012571549263689
    -0.008584582920686    -0.010732980482120    -0.008584582920686
    -0.012571549263689    -0.011385167715923     0.000387953030644
1 50
    -0.068666681006472     0.000103549711406     0.190733494366028
     0.003517019309236     0.011743292441371     0.003517019309236
     0.190733494366028     0.000103549711406    -0.068666681006472
1 51
     0.006039062037539     0.005321732591520     0.004370287271803
     0.007036289759202     0.000415618583458     0.007036289759202
     0.004370287271803     0.005321732591520     0.006039062037539
1 52
    -0.012971150221271    -0.005142917439955    -0.030135286213234
     0.001760919618159     0.003559592109308     0.001760919618159
    -0.030135286213234    -0.005142917439955    -0.012971150221271
1 53
    -0.068666681006472     0.000103549711406     0.190733494366028
     0.003517019309236     0.011743292441371     0.003517019309236
     0.190733494366028     0.000103549711406    -0.068666681006472
1 54
     0.000387953030644    -0.011385167715923    -0.012571549263689
    -0.008584582920686    -0.010732980482120    -0.008584582920686
    -0.012571549263689    -0.011385167715923     0.000387953030644
1 55
    -0.012971150221271    -0.005142917439955    -0.030135286213234
     0.001760919618159     0.003559592109308     0.001760919618159
    -0.030135286213234    -0.005142917439955    -0.012971150221271
1 56
     0.006039062037539     0.005321732591520     0.004370287271803
     0.007036289759202     0.000415618583458     0.007036289759202
     0.004370287271803     0.005321732591520     0.006039062037539
1 57
    -0.000397200661516     0.002666927802913    -0.000811037667342
    -0.023873618122142    -0.415666517563360    -0.023873618122142
    -0.000811037667342     0.002666927802913    -0.000397200661516
1 58
    -0.000397200661516     0.000811037667342    -0.002666927802913
     0.000811037667342    -0.000397200661516     0.002666927802913
     0.023873618122142    -0.023873618122142    -0.415666517563360
1 59
     0.000353039633323    -0.001992994273454     0.001992994273454
    -0.001992994273454     0.000353039633323    -0.001992994273454
     0.001992994273454    -0.001992994273454     0.000353039633323
1 60
    -0.415666517563360    -0.023873618122142     0.023873618122142
     0.002666927802913    -0.000397200661516     0.000811037667342
    -0.002666927802913     0.000811037667342    -0.000397200661516
1 61
    -0.415666517563360    -0.023873618122142     0.023873618122142
     0.002666927802913    -0.000397200661516     0.000811037667342
    -0.002666927802913     0.000811037667342    -0.000397200661516
1 62
     0.000353039633323    -0.001992994273454     0.001992994273454
    -0.001992994273454     0.000353039633323    -0.001992994273454
     0.001992994273454    -0.001992994273454     0.000353039633323
1 63
    -0.000397200661516     0.000811037667342    -0.002666927802913
     0.000811037667342    -0.000397200661516     0.002666927802913
     0.023873618122142    -0.023873618122142    -0.415666517563360
1 64
    -0.000397200661516     0.002666927802913    -0.000811037667342
    -0.023873618122142    -0.415666517563360    -0.023873618122142
    -0.000811037667342     0.002666927802913    -0.000397200661516
1 65
     0.044207086809323     0.050557405650970     0.002135849178204
     0.098359061496047    -0.960405503396610     0.098359061496047
     0.002135849178204     0.050557405650970     0.044207086809323
1 66
     0.000554291614510    -0.001863160077166    -0.002298947776702
    -0.003282500163703     0.022422629482876     0.071152597759809
    -0.008015110607467     0.032244665843453     0.048803987993817
1 67
    -0.001001962022534     0.000961024406893     0.002063017179742
    -0.000839092681312    -0.002560248591574    -0.000839092681312
     0.002063017179742     0.000961024406893    -0.001001962022534
1 68
    -0.001537683797630    -0.002509102121780     0.002463504782937
     0.010683654259861    -0.004966886521342     0.003290676085860
     0.000823724157365    -0.003341013249846    -0.005192365196193
1 69
     0.048803987993817     0.032244665843453    -0.008015110607467
     0.071152597759809     0.022422629482876    -0.003282500163702
    -0.002298947776702    -0.001863160077166     0.000554291614510
1 70
     0.001795971122274    -0.000009568038633    -0.003590566700887
    -0.003041023197927    -0.004213994576074    -0.003041023197927
    -0.003590566700887    -0.000009568038633     0.001795971122274
1 71
    -0.005192365196193    -0.003341013249846     0.000823724157365
     0.003290676085860    -0.004966886521342     0.010683654259861
     0.002463504782937    -0.002509102121780    -0.001537683797630
1 72
     0.019287141238399    -0.007466097434593     0.007998559889370
    -0.015261861308827     0.113500899715175    -0.015261861308827
     0.007998559889370    -0.007466097434593     0.019287141238399
1 73
     0.003060366435383    -0.014853871744626     0.014853871744626
    -0.014853871744626     0.003060366435383    -0.014853871744626
     0.014853871744626    -0.014853871744626     0.003060366435383
1 74
     0.000832626521255    -0.002572399227239     0.002572399227239
    -0.002089180130646     0.004287461865785     0.004742266870745
     0.002089180130646     0.004742266870745     0.004287461865785
1 75
     0.000987040964596     0.015430274256727     0.004088789719494
     0.003476015402335     0.003742724479228     0.003476015402335
     0.004088789719494     0.015430274256727     0.000987040964596
1 76
     0.000987040964596    -0.004088789719494    -0.015430274256727
    -0.004088789719494     0.000987040964596     0.015430274256727
    -0.003476015402335     0.003476015402335     0.003742724479228
1 77
     0.004287461865785     0.004742266870745     0.002089180130646
     0.004742266870745     0.004287461865785    -0.002089180130646
     0.002572399227239    -0.002572399227239     0.000832626521255
1 78
     0.004287461865785    -0.002089180130646    -0.004742266870745
    -0.002572399227239     0.000832626521255    -0.002572399227239
    -0.004742266870745    -0.002089180130646     0.004287461865785
1 79
     0.003742724479228     0.003476015402335    -0.003476015402335
     0.015430274256727     0.000987040964596    -0.004088789719494
    -0.015430274256727    -0.004088789719494     0.000987040964596
1 80
     0.006398440772669     0.006098232512018    -0.006098232512018
     0.006098232512018     0.006398440772669     0.006098232512018
    -0.006098232512018     0.006098232512018     0.006398440772669
1 81
     0.044207086809323    -0.002135849178204    -0.050557405650970
    -0.002135849178204     0.044207086809323     0.050557405650970
    -0.098359061496047     0.098359061496047    -0.960405503396610
1 82
     0.000554291614510     0.002298947776702     0.001863160077166
     0.008015110607467     0.048803987993817     0.032244665843453
     0.003282500163703     0.071152597759809     0.022422629482876
1 83
    -0.001537683797630    -0.002463504782937     0.002509102121780
    -0.000823724157365    -0.005192365196193    -0.003341013249846
    -0.010683654259861     0.003290676085860    -0.004966886521342
1 84
    -0.001001962022534    -0.002063017179742    -0.000961024406893
    -0.002063017179742    -0.001001962022534     0.000961024406893
     0.000839092681312    -0.000839092681312    -0.002560248591574
1 85
     0.001795971122274     0.003590566700887     0.000009568038633
     0.003590566700887     0.001795971122274    -0.000009568038633
     0.003041023197927    -0.003041023197927    -0.004213994576074
1 86
     0.048803987993817     0.008015110607467    -0.032244665843453
     0.002298947776702     0.000554291614510    -0.001863160077166
    -0.071152597759809    -0.003282500163703     0.022422629482876
1 87
    -0.005192365196193    -0.000823724157365     0.003341013249846
    -0.002463504782937    -0.001537683797630    -0.002509102121780
    -0.003290676085860     0.010683654259861    -0.004966886521342
1 88
     0.019287141238399    -0.007998559889370     0.007466097434593
    -0.007998559889370     0.019287141238399    -0.007466097434593
     0.015261861308827    -0.015261861308827     0.113500899715175
1 89
    -0.960405503396610     0.098359061496047    -0.098359061496047
     0.050557405650970     0.044207086809323    -0.002135849178204
    -0.050557405650970    -0.002135849178204     0.044207086809323
1 90
    -0.004213994576074    -0.003041023197927     0.003041023197927
    -0.000009568038633     0.001795971122274     0.003590566700887
     0.000009568038633     0.003590566700887     0.001795971122274
1 91
    -0.004966886521342     0.003290676085860    -0.010683654259861
    -0.003341013249846    -0.005192365196193    -0.000823724157365
     0.002509102121780    -0.002463504782937    -0.001537683797630
1 92
    -0.004966886521342     0.010683654259861    -0.003290676085860
    -0.002509102121780    -0.001537683797630    -0.002463504782937
     0.003341013249846    -0.000823724157365    -0.005192365196193
1 93
     0.022422629482876     0.071152597759809     0.003282500163703
     0.032244665843453     0.048803987993817     0.008015110607467
     0.001863160077166     0.002298947776702     0.000554291614510
1 94
     0.022422629482876    -0.003282500163703    -0.071152597759809
    -0.001863160077166     0.000554291614510     0.002298947776702
    -0.032244665843453     0.008015110607467     0.048803987993817
1 95
    -0.002560248591574    -0.000839092681312     0.000839092681312
     0.000961024406893    -0.001001962022534    -0.002063017179742
    -0.000961024406893    -0.002063017179742    -0.001001962022534
1 96
     0.113500899715175    -0.015261861308827     0.015261861308827
    -0.007466097434593     0.019287141238399    -0.007998559889370
     0.007466097434593    -0.007998559889370     0.019287141238399
1 97
    -0.001537683797630    -0.002463504782937     0.002509102121780
    -0.000823724157365    -0.005192365196193    -0.003341013249846
    -0.010683654259861     0.003290676085860    -0.004966886521342
1 98
    -0.001001962022534    -0.002063017179742    -0.000961024406893
    -0.002063017179742    -0.001001962022534     0.000961024406893
     0.000839092681312    -0.000839092681312    -0.002560248591574
1 99
     0.044207086809323    -0.002135849178204    -0.050557405650970
    -0.002135849178204     0.044207086809323     0.050557405650970
    -0.098359061496047     0.098359061496047    -0.960405503396610
1 100
     0.000554291614510     0.002298947776702     0.001863160077166
     0.008015110607467     0.048803987993817     0.032244665843453
     0.003282500163703     0.071152597759809     0.022422629482876
1 101
    -0.005192365196193    -0.000823724157365     0.003341013249846
    -0.002463504782937    -0.001537683797630    -0.002509102121780
    -0.003290676085860     0.010683654259861    -0.004966886521342
1 102
     0.019287141238399    -0.007998559889370     0.007466097434593
    -0.007998559889370     0.019287141238399    -0.007466097434593
     0.015261861308827    -0.015261861308827     0.113500899715175
1 103
     0.001795971122274     0.003590566700887     0.000009568038633
     0.003590566700887     0.001795971122274    -0.000009568038633
     0.003041023197927    -0.003041023197927    -0.004213994576074
1 104
     0.048803987993817     0.008015110607467    -0.032244665843453
     0.002298947776702     0.000554291614510    -0.001863160077166
    -0.071152597759809    -0.003282500163703     0.022422629482876
1 105
    -0.004966886521342     0.003290676085860    -0.010683654259861
    -0.003341013249846    -0.005192365196193    -0.000823724157365
     0.002509102121780    -0.002463504782937    -0.001537683797630
1 106
    -0.004966886521342     0.010683654259861    -0.003290676085860
    -0.002509102121780    -0.001537683797630    -0.002463504782937
     0.003341013249846    -0.000823724157365    -0.005192365196193
1 107
    -0.960405503396610     0.098359061496047    -0.098359061496047
     0.050557405650970     0.044207086809323    -0.002135849178204
    -0.050557405650970    -0.002135849178204     0.044207086809323
1 108
    -0.004213994576074    -0.003041023197927     0.003041023197927
    -0.000009568038633     0.001795971122274     0.003590566700887
     0.000009568038633     0.003590566700887     0.001795971122274
1 109
    -0.002560248591574    -0.000839092681312     0.000839092681312
     0.000961024406893    -0.001001962022534    -0.002063017179742
    -0.000961024406893    -0.002063017179742    -0.001001962022534
1 110
     0.113500899715175    -0.015261861308827     0.015261861308827
    -0.007466097434593     0.019287141238399    -0.007998559889370
     0.007466097434593    -0.007998559889370     0.019287141238399
1 111
     0.022422629482876     0.071152597759809     0.003282500163703
     0.032244665843453     0.048803987993817     0.008015110607467
     0.001863160077166     0.002298947776702     0.000554291614510
1 112
     0.022422629482876    -0.003282500163703    -0.071152597759809
    -0.001863160077166     0.000554291614510     0.002298947776702
    -0.032244665843453     0.008015110607467     0.048803987993817
1 113
    -0.001001962022534     0.000961024406893     0.002063017179742
    -0.000839092681312    -0.002560248591574    -0.000839092681312
     0.002063017179742     0.000961024406893    -0.001001962022534
1 114
    -0.001537683797630    -0.002509102121780     0.002463504782937
     0.010683654259861    -0.004966886521342     0.003290676085860
     0.000823724157365    -0.003341013249846    -0.005192365196193
1 115
     0.044207086809323     0.050557405650970     0.002135849178204
     0.098359061496047    -0.960405503396610     0.098359061496047
     0.002135849178204     0.050557405650970     0.044207086809323
1 116
     0.000554291614510    -0.001863160077166    -0.002298947776702
    -0.003282500163703     0.022422629482876     0.071152597759809
    -0.008015110607467     0.032244665843453     0.048803987993817
1 117
    -0.005192365196193    -0.003341013249846     0.000823724157365
     0.003290676085860    -0.004966886521342     0.010683654259861
     0.002463504782937    -0.002509102121780    -0.001537683797630
1 118
     0.019287141238399    -0.007466097434593     0.007998559889370
    -0.015261861308827     0.113500899715175    -0.015261861308827
     0.007998559889370    -0.007466097434593     0.019287141238399
1 119
     0.048803987993817     0.032244665843453    -0.008015110607467
     0.071152597759809     0.022422629482876    -0.003282500163702
    -0.002298947776702    -0.001863160077166     0.000554291614510
1 120
     0.001795971122274    -0.000009568038633    -0.003590566700887
    -0.003041023197927    -0.004213994576074    -0.003041023197927
    -0.003590566700887    -0.000009568038633     0.001795971122274
1 121
     0.000987040964596     0.015430274256727     0.004088789719494
     0.003476015402335     0.003742724479228     0.003476015402335
     0.004088789719494     0.015430274256727     0.000987040964596
1 122
     0.000987040964596    -0.004088789719494    -0.015430274256727
    -0.004088789719494     0.000987040964596     0.015430274256727
    -0.003476015402335     0.003476015402335     0.003742724479228
1 123
     0.003060366435383    -0.014853871744626     0.014853871744626
    -0.014853871744626     0.003060366435383    -0.014853871744626
     0.014853871744626    -0.014853871744626     0.003060366435383
1 124
     0.000832626521255    -0.002572399227239     0.002572399227239
    -0.002089180130646     0.004287461865785     0.004742266870745
     0.002089180130646     0.004742266870745     0.004287461865785
1 125
     0.003742724479228     0.003476015402335    -0.003476015402335
     0.015430274256727     0.000987040964596    -0.004088789719494
    -0.015430274256727    -0.004088789719494     0.000987040964596
1 126
     0.006398440772669     0.006098232512018    -0.006098232512018
     0.006098232512018     0.006398440772669     0.006098232512018
    -0.006098232512018     0.006098232512018     0.006398440772669
1 127
     0.004287461865785     0.004742266870745     0.002089180130646
     0.004742266870745     0.004287461865785    -0.002089180130646
     0.002572399227239    -0.002572399227239     0.000832626521255
1 128
     0.004287461865785    -0.002089180130646    -0.004742266870745
    -0.002572399227239     0.000832626521255    -0.002572399227239
    -0.004742266870745    -0.002089180130646     0.004287461865785
2 1
     0.001419152261298    -0.000477175543323     0.000477175543323
    -0.000477175543323    -0.014587623944422    -0.010942355904884
     0.000477175543323    -0.010942355904884    -0.014587623944422
2 2
     2.566241818728601    -0.187151951563009     0.187151951563008
    -0.187151951563009     2.566241818728600    -0.187151951563008
     0.187151951563008    -0.187151951563008     2.566241818728602
2 3
    -0.001569788102778     0.004846631412231    -0.000904157553725
     0.004846631412231    -0.001569788102778     0.000904157553725
    -0.000904157553725     0.000904157553725    -0.001620699791023
2 4
    -0.001569788102778     0.000904157553725    -0.004846631412231
     0.000904157553725    -0.001620699791023     0.000904157553725
    -0.004846631412231     0.000904157553725    -0.001569788102778
2 5
    -0.014587623944422    -0.000477175543323     0.010942355904884
    -0.000477175543323     0.001419152261298    -0.000477175543323
     0.010942355904884    -0.000477175543323    -0.014587623944422
2 6
    -0.014587623944422    -0.010942355904884     0.000477175543323
    -0.010942355904884    -0.014587623944422    -0.000477175543323
     0.000477175543323    -0.000477175543323     0.001419152261298
2 7
    -0.023205134286742     0.003652328058807    -0.003652328058807
     0.003652328058807    -0.023205134286742     0.003652328058807
    -0.003652328058807     0.003652328058807    -0.023205134286742
2 8
    -0.001620699791023     0.000904157553725    -0.000904157553725
     0.000904157553725    -0.001569788102778     0.004846631412231
    -0.000904157553725     0.004846631412231    -0.001569788102778
2 9
     0.001397585504472     0.002507698956761    -0.001853415261838
    -0.003022936732290     0.001397585504472    -0.002197069157494
    -0.002197069157494    -0.001853415261838    -0.003137797390059
2 10
    -0.039907173235064     0.068504096165245    -0.000792578313362
     0.068504096165245    -0.039907173235064     0.000792578313362
     0.000792578313362    -0.000792578313362     0.006051055231460
2 11
    -0.039907173235064     0.068504096165245    -0.000792578313362
     0.068504096165245    -0.039907173235064     0.000792578313362
     0.000792578313362    -0.000792578313362     0.006051055231460
2 12
     0.001397585504472     0.002507698956761    -0.001853415261838
    -0.003022936732290     0.001397585504472    -0.002197069157494
    -0.002197069157494    -0.001853415261838    -0.003137797390059
2 13
     0.001397585504472    -0.003022936732290     0.002197069157494
     0.002507698956761     0.001397585504472     0.001853415261838
     0.001853415261838     0.002197069157494    -0.003137797390059
2 14
    -0.018266346973545    -0.025657601574766     0.002519598238063
    -0.025657601574766    -0.018266346973545    -0.002519598238063
    -0.002519598238063     0.002519598238063    -0.002383668007923
2 15
    -0.018266346973545    -0.025657601574766     0.002519598238063
    -0.025657601574766    -0.018266346973545    -0.002519598238063
    -0.002519598238063     0.002519598238063    -0.002383668007923
2 16
     0.001397585504472    -0.003022936732290     0.002197069157494
     0.002507698956761     0.001397585504472     0.001853415261838
     0.001853415261838     0.002197069157494    -0.003137797390059
2 17
     0.001397585504472     0.001853415261838    -0.002507698956761
     0.002197069157494    -0.003137797390059    -0.001853415261838
     0.003022936732290    -0.002197069157494     0.001397585504472
2 18
    -0.039907173235064     0.000792578313362    -0.068504096165245